ITEM: TIMESTEP
0
ITEM: NUMBER OF ATOMS
90
ITEM: ATOMS type x y z
atom	0.286821	-0.24952	0.210671
atom	0.446668	-0.480729	-0.0950979
atom	-0.248682	-0.477288	0.0206432
atom	-0.15533	-0.225804	0.0610321
atom	-0.359961	0.0438561	0.0219157
atom	0.357077	-0.00022564	-0.08063
atom	0.244281	-0.250832	-0.260723
atom	-0.179935	0.410501	-0.335167
atom	-0.254467	-0.30168	0.215893
atom	0.467825	0.269432	-0.419293
atom	-0.0400751	-0.242738	0.277046
atom	0.0838827	0.4503	-0.0619
atom	-0.177711	0.032405	-0.243641
atom	-0.45446	0.00497638	0.196239
atom	-0.408781	0.40712	-0.469085
atom	-0.347964	0.48152	0.120412
atom	-0.201233	-0.138675	-0.0190312
atom	-0.202153	-0.214813	0.424194
atom	0.128902	0.255031	0.213892
atom	0.222758	-0.430163	-0.0131655
atom	-0.411139	0.259622	-0.0761827
atom	0.0969826	-0.413584	-0.227039
atom	0.123808	-0.277865	-0.274552
atom	-0.0658596	0.487307	-0.28901
atom	0.353215	-0.215886	0.336365
atom	-0.133281	0.435147	0.359905
atom	-0.0090891	-0.477921	-0.137883
atom	0.236445	0.0193706	-0.0770477
atom	-0.470967	0.409242	-0.38782
atom	0.480166	0.187829	-0.0126693
atom	0.235908	0.0886694	0.0284519
atom	-0.0443555	0.328303	0.370392
atom	-0.00851007	0.46953	0.388796
atom	-0.361735	-0.0634493	-0.156089
atom	-0.381073	0.0482449	0.259026
atom	-0.467598	-0.398393	0.0869282
atom	0.195038	0.291824	0.349987
atom	0.375281	0.105491	0.453564
atom	0.490865	0.367071	0.144111
atom	0.104654	0.412689	-0.0330017
atom	-0.420858	0.404333	0.327346
atom	-0.352689	0.30717	0.16887
atom	-0.361352	0.172333	0.332426
atom	0.456864	0.129748	-0.144274
atom	-0.176776	-0.436682	-0.21946
atom	-0.243016	-0.412484	-0.426381
atom	-0.399332	-0.36931	0.127886
atom	-0.188024	0.451291	0.472835
atom	-0.298275	0.22612	0.176285
atom	0.067179	0.218358	-0.289863
atom	0.246571	0.248943	0.394202
atom	-0.383118	0.154266	-0.473448
atom	-0.214249	0.111837	-0.134299
atom	-0.218832	0.21123	0.368726
atom	-0.377521	0.387004	0.0953841
atom	0.295094	0.0671724	0.488584
atom	0.46275	0.006296	0.29339
atom	0.219541	-0.0978123	-0.383997
atom	0.331381	-0.158913	0.311923
atom	-0.263385	0.434162	-0.0418948
atom	0.35286	0.24979	-0.130335
atom	0.144393	0.0898	0.343262
atom	-0.494294	-0.313414	-0.202877
atom	-0.161311	0.225961	0.494564
atom	0.401857	0.267029	-0.371187
atom	-0.220684	-0.371628	0.388838
atom	0.305795	-0.0992031	0.0273637
atom	-0.202825	0.417667	0.312785
atom	0.0178314	0.100164	0.333823
atom	-0.0220744	-0.170837	0.0922497
atom	0.326142	-0.0329709	-0.233436
atom	0.3075	-0.372077	-0.132275
atom	-0.480446	-0.375982	-0.338229
atom	-0.0651584	0.191681	-0.414046
atom	0.487139	0.118904	-0.128824
atom	-0.263326	-0.341063	-0.463127
atom	-0.40056	0.183944	0.452125
atom	0.287105	-0.264212	-0.13599
atom	-0.137001	0.434142	0.498865
atom	-0.299014	0.0527955	0.197382
atom	0.192114	-0.413885	-0.141655
atom	-0.213668	-0.40568	0.443607
atom	-0.0278094	0.0197625	-0.347924
atom	-0.112566	-0.401063	-0.334711
atom	0.0839373	-0.0265483	0.149411
atom	0.0444454	-0.18394	0.431878
atom	0.489908	0.277137	-0.274821
atom	0.290953	-0.456036	-0.115662
atom	0.16992	-0.19891	-0.178478
atom	-0.386276	0.190941	-0.16981
ITEM: TIMESTEP
1
ITEM: NUMBER OF ATOMS
90
ITEM: ATOMS type x y z
atom	0.293237	-0.243447	0.192377
atom	0.432165	-0.490367	-0.0885394
atom	-0.244838	-0.482279	0.0136627
atom	-0.15007	-0.224676	0.0627512
atom	-0.358308	0.033475	0.0327473
atom	0.34912	0.0137932	-0.0887068
atom	0.258931	-0.244694	-0.255318
atom	-0.185065	0.401163	-0.33838
atom	-0.249272	-0.300848	0.24091
atom	0.474398	0.264561	-0.421964
atom	-0.0318944	-0.241377	0.268073
atom	0.0819415	0.452133	-0.0687712
atom	-0.18256	0.020965	-0.239954
atom	-0.482	0.00531562	0.18938
atom	-0.411333	0.40824	-0.490706
atom	-0.343304	0.469823	0.12572
atom	-0.219763	-0.136187	-0.0349188
atom	-0.202757	-0.21148	0.411351
atom	0.119352	0.266372	0.196704
atom	0.237562	-0.428942	-0.00643649
atom	-0.403074	0.250974	-0.0756705
atom	0.0868526	-0.425683	-0.221504
atom	0.12854	-0.276935	-0.282417
atom	-0.0696646	0.496219	-0.289561
atom	0.347889	-0.210348	0.346456
atom	-0.106224	0.420627	0.350127
atom	-0.00416701	-0.461438	-0.127147
atom	0.223348	0.021298	-0.0739311
atom	-0.460755	0.416308	-0.400592
atom	0.493915	0.188516	-0.0180347
atom	0.214826	0.0935997	0.038947
atom	-0.0469724	0.334402	0.370297
atom	-0.00327539	0.462488	0.381678
atom	-0.353572	-0.0596003	-0.156865
atom	-0.373942	0.0430423	0.265491
atom	-0.482109	-0.389089	0.0876894
atom	0.194385	0.306542	0.352457
atom	0.384927	0.110437	0.438339
atom	0.473953	0.355162	0.154062
atom	0.107248	0.395433	-0.0511562
atom	-0.422992	0.408803	0.308618
atom	-0.33902	0.319505	0.180057
atom	-0.360065	0.182548	0.324851
atom	0.479736	0.133579	-0.131156
atom	-0.156425	-0.441113	-0.199523
atom	-0.236914	-0.411311	-0.400067
atom	-0.395274	-0.36888	0.129426
atom	-0.179216	0.444669	0.472566
atom	-0.293714	0.239406	0.166226
atom	0.0670905	0.204373	-0.289598
atom	0.240237	0.250517	0.395679
atom	-0.355953	0.139141	-0.475278
atom	-0.210832	0.120337	-0.140063
atom	-0.22286	0.203292	0.390796
atom	-0.384506	0.378579	0.104364
atom	0.298152	0.0523692	0.498019
atom	0.451998	-0.000785014	0.287376
atom	0.222266	-0.109795	-0.385607
atom	0.338225	-0.164509	0.318039
atom	-0.269881	0.42995	-0.0417118
atom	0.35286	0.246901	-0.126554
atom	0.135832	0.0799935	0.351724
atom	-0.512815	-0.307638	-0.21029
atom	-0.168575	0.235941	0.493727
atom	0.414741	0.267397	-0.378314
atom	-0.207419	-0.393705	0.396677
atom	0.298285	-0.106405	0.0272389
atom	-0.207221	0.407437	0.311685
atom	0.0316591	0.112603	0.345352
atom	-0.00439816	-0.170973	0.0788866
atom	0.315544	-0.0389965	-0.228638
atom	0.295234	-0.373943	-0.133566
atom	-0.460819	-0.374424	-0.325435
atom	-0.0639307	0.192744	-0.407869
atom	0.481049	0.126033	-0.118475
atom	-0.268094	-0.352686	-0.458858
atom	-0.380134	0.193735	0.446841
atom	0.286411	-0.259356	-0.140297
atom	-0.154072	0.427968	0.497132
atom	-0.309121	0.0635776	0.198691
atom	0.20647	-0.413631	-0.135174
atom	-0.219334	-0.406401	0.457972
atom	-0.0342499	0.0154676	-0.353725
atom	-0.106935	-0.401763	-0.337994
atom	0.0933035	-0.022582	0.156618
atom	0.0503065	-0.183271	0.430854
atom	0.490811	0.28404	-0.264084
atom	0.288349	-0.454282	-0.124531
atom	0.164758	-0.194375	-0.173212
atom	-0.381612	0.20219	-0.162975
ITEM: TIMESTEP
2
ITEM: NUMBER OF ATOMS
90
ITEM: ATOMS type x y z
atom	0.301944	-0.250571	0.216637
atom	0.432966	-0.499143	-0.0949081
atom	-0.249933	-0.485114	-0.00478347
atom	-0.16212	-0.212111	0.0652386
atom	-0.369624	0.0311951	0.0319491
atom	0.319669	0.00284155	-0.0919093
atom	0.264866	-0.245193	-0.274694
atom	-0.188972	0.395407	-0.342961
atom	-0.237016	-0.302409	0.236153
atom	0.483149	0.275002	-0.434286
atom	-0.0248698	-0.239473	0.267921
atom	0.0939282	0.447661	-0.0534275
atom	-0.176389	0.0293729	-0.240707
atom	-0.468626	0.00234003	0.183542
atom	-0.419265	0.416056	-0.463816
atom	-0.33766	0.464654	0.135032
atom	-0.203463	-0.135965	-0.0440502
atom	-0.223547	-0.196363	0.417602
atom	0.107382	0.280789	0.215503
atom	0.233959	-0.447008	-0.0136524
atom	-0.400505	0.244945	-0.0622326
atom	0.0867972	-0.435439	-0.216838
atom	0.126006	-0.28007	-0.286061
atom	-0.0579284	0.508888	-0.291223
atom	0.353485	-0.206221	0.353701
atom	-0.0913373	0.415042	0.361866
atom	-0.0149131	-0.469318	-0.115359
atom	0.227979	0.0138126	-0.074071
atom	-0.451515	0.407894	-0.40957
atom	0.489338	0.179872	-0.0128852
atom	0.200668	0.0853967	0.0442218
atom	-0.0544982	0.355318	0.361343
atom	-0.0100185	0.467395	0.38198
atom	-0.35414	-0.0628089	-0.15814
atom	-0.360546	0.0381239	0.260635
atom	-0.497476	-0.387256	0.0791137
atom	0.191006	0.321208	0.344715
atom	0.372883	0.125547	0.450988
atom	0.467219	0.353395	0.16131
atom	0.108406	0.406197	-0.0554357
atom	-0.439774	0.408555	0.309152
atom	-0.324259	0.313003	0.177621
atom	-0.355516	0.183305	0.329702
atom	0.481172	0.145147	-0.114961
atom	-0.154607	-0.451388	-0.191069
atom	-0.233195	-0.402364	-0.397922
atom	-0.391521	-0.367264	0.139703
atom	-0.178449	0.438432	0.464488
atom	-0.299823	0.237557	0.155558
atom	0.0728381	0.215012	-0.301406
atom	0.241139	0.239479	0.386589
atom	-0.377792	0.141376	-0.469469
atom	-0.213763	0.115907	-0.141208
atom	-0.205616	0.197746	0.389708
atom	-0.376245	0.382143	0.115872
atom	0.307642	0.0614645	0.489941
atom	0.44455	-0.0160748	0.286901
atom	0.237451	-0.128231	-0.37994
atom	0.343486	-0.176439	0.322488
atom	-0.262371	0.439419	-0.0425792
atom	0.369869	0.276271	-0.124046
atom	0.146037	0.0795157	0.356217
atom	-0.515694	-0.314812	-0.21063
atom	-0.171707	0.224729	0.486659
atom	0.418987	0.275489	-0.368312
atom	-0.222995	-0.382764	0.394241
atom	0.296087	-0.112985	0.0265635
atom	-0.215933	0.430809	0.30468
atom	0.0305383	0.103157	0.330405
atom	0.00435704	-0.19322	0.0810534
atom	0.327958	-0.0420651	-0.227991
atom	0.29346	-0.380059	-0.142628
atom	-0.450023	-0.366992	-0.324813
atom	-0.0851829	0.188272	-0.419656
atom	0.488136	0.139806	-0.139404
atom	-0.255138	-0.356475	-0.449324
atom	-0.382856	0.191531	0.454549
atom	0.285882	-0.244952	-0.147347
atom	-0.161035	0.421583	0.488586
atom	-0.332103	0.0752682	0.21078
atom	0.184491	-0.423978	-0.139615
atom	-0.226597	-0.409405	0.463627
atom	-0.0316926	0.00023824	-0.363459
atom	-0.104303	-0.40529	-0.332899
atom	0.0722212	-0.0196451	0.146508
atom	0.0432688	-0.195711	0.442225
atom	0.505756	0.269863	-0.274044
atom	0.293647	-0.457956	-0.114737
atom	0.168842	-0.192911	-0.161181
atom	-0.389651	0.210803	-0.174488
ITEM: TIMESTEP
3
ITEM: NUMBER OF ATOMS
90
ITEM: ATOMS type x y z
atom	0.297116	-0.254792	0.217744
atom	0.445145	-0.503195	-0.0942728
atom	-0.271507	-0.486745	-0.0155751
atom	-0.160595	-0.202091	0.081306
atom	-0.377623	0.0327238	0.0334986
atom	0.326892	0.0161064	-0.0826407
atom	0.262933	-0.237569	-0.28465
atom	-0.20068	0.390223	-0.363174
atom	-0.236189	-0.310782	0.237434
atom	0.477942	0.293293	-0.42772
atom	-0.0304811	-0.231701	0.261117
atom	0.10593	0.445809	-0.0590454
atom	-0.176918	0.0294288	-0.250137
atom	-0.463933	0.0203125	0.186509
atom	-0.411363	0.419251	-0.455407
atom	-0.331331	0.471541	0.146544
atom	-0.204526	-0.153056	-0.0420064
atom	-0.226128	-0.179476	0.418085
atom	0.0903311	0.260602	0.217129
atom	0.229955	-0.442881	0.00055264
atom	-0.396443	0.25639	-0.0530189
atom	0.101257	-0.432291	-0.21943
atom	0.118159	-0.278428	-0.278169
atom	-0.0631552	0.506101	-0.294065
atom	0.351373	-0.223538	0.358371
atom	-0.0786758	0.423523	0.363954
atom	-0.0188967	-0.471947	-0.108781
atom	0.22106	0.0361237	-0.0791256
atom	-0.459121	0.409752	-0.423682
atom	0.495061	0.177754	0.00089657
atom	0.217422	0.0704052	0.052748
atom	-0.048004	0.352272	0.363297
atom	-0.00348554	0.463448	0.382701
atom	-0.360038	-0.0580188	-0.157554
atom	-0.371615	0.0506291	0.282793
atom	-0.507873	-0.384316	0.0747484
atom	0.183072	0.323022	0.349469
atom	0.389692	0.129627	0.441953
atom	0.467817	0.357509	0.153278
atom	0.111076	0.40201	-0.0446296
atom	-0.437793	0.418238	0.316537
atom	-0.334392	0.306497	0.160421
atom	-0.358375	0.189522	0.347335
atom	0.472413	0.117587	-0.108781
atom	-0.137335	-0.439201	-0.201482
atom	-0.223938	-0.384823	-0.396319
atom	-0.373548	-0.359738	0.144231
atom	-0.186074	0.439346	0.466659
atom	-0.281261	0.242886	0.145048
atom	0.0689171	0.226803	-0.292859
atom	0.225448	0.256781	0.36708
atom	-0.368779	0.137849	-0.483198
atom	-0.203793	0.0878821	-0.134531
atom	-0.196592	0.210624	0.395727
atom	-0.387861	0.377736	0.122117
atom	0.283381	0.0655003	0.495603
atom	0.436536	-0.00752197	0.288568
atom	0.23774	-0.131765	-0.399816
atom	0.351467	-0.179094	0.32996
atom	-0.266305	0.438206	-0.039159
atom	0.379432	0.261734	-0.139612
atom	0.140414	0.0850143	0.368417
atom	-0.523952	-0.305873	-0.213562
atom	-0.173598	0.225774	0.459773
atom	0.441642	0.278419	-0.360447
atom	-0.215796	-0.397092	0.391219
atom	0.305121	-0.11112	0.0312759
atom	-0.21249	0.424912	0.311096
atom	0.0230886	0.115017	0.327859
atom	-0.0109828	-0.222845	0.092015
atom	0.329334	-0.0454337	-0.222516
atom	0.293986	-0.369957	-0.133689
atom	-0.462532	-0.371975	-0.310973
atom	-0.0921948	0.187516	-0.414613
atom	0.476185	0.135832	-0.142736
atom	-0.249141	-0.365006	-0.438808
atom	-0.395591	0.204272	0.460705
atom	0.28624	-0.260519	-0.137269
atom	-0.151729	0.423815	0.495644
atom	-0.331339	0.0734035	0.211094
atom	0.183464	-0.388823	-0.142341
atom	-0.233751	-0.422862	0.450143
atom	-0.0350241	0.00633309	-0.365073
atom	-0.0952151	-0.397839	-0.345088
atom	0.0736498	-0.0316487	0.143281
atom	0.0425214	-0.200959	0.442469
atom	0.502112	0.285961	-0.276061
atom	0.296024	-0.448423	-0.135057
atom	0.161221	-0.187828	-0.177358
atom	-0.382769	0.207633	-0.169418
ITEM: TIMESTEP
4
ITEM: NUMBER OF ATOMS
90
ITEM: ATOMS type x y z
atom	0.302115	-0.229981	0.207374
atom	0.449289	-0.502059	-0.0780127
atom	-0.280292	-0.494575	-0.0260929
atom	-0.160302	-0.215784	0.0839659
atom	-0.361246	0.0523178	0.0396046
atom	0.32389	0.0173317	-0.0819645
atom	0.276444	-0.238045	-0.286179
atom	-0.188843	0.383526	-0.372209
atom	-0.236152	-0.316469	0.261806
atom	0.472069	0.288507	-0.424868
atom	-0.0350774	-0.238273	0.257602
atom	0.105538	0.457369	-0.0611376
atom	-0.186058	0.0145468	-0.222656
atom	-0.453947	0.0231912	0.196743
atom	-0.411059	0.392038	-0.446849
atom	-0.325783	0.44971	0.152773
atom	-0.20286	-0.151533	-0.0523045
atom	-0.209975	-0.164284	0.421848
atom	0.0840479	0.259331	0.237672
atom	0.236234	-0.433235	-0.0145647
atom	-0.40351	0.258023	-0.0519313
atom	0.0889563	-0.431113	-0.242265
atom	0.111574	-0.284029	-0.284299
atom	-0.0614854	0.513587	-0.288419
atom	0.344117	-0.20333	0.350367
atom	-0.0702263	0.426355	0.371672
atom	-0.0158137	-0.467546	-0.10936
atom	0.242236	0.0431049	-0.0773803
atom	-0.448164	0.393622	-0.410928
atom	0.492663	0.174818	0.0140568
atom	0.215491	0.0721102	0.055488
atom	-0.055726	0.361885	0.358449
atom	0.0011232	0.464288	0.383226
atom	-0.348737	-0.038032	-0.162125
atom	-0.378277	0.0471121	0.283688
atom	-0.52283	-0.387424	0.0561638
atom	0.193236	0.311138	0.357023
atom	0.379268	0.134702	0.438658
atom	0.453546	0.360051	0.159497
atom	0.125821	0.41091	-0.0498695
atom	-0.448122	0.408572	0.3199
atom	-0.340369	0.294916	0.15945
atom	-0.359032	0.192511	0.346107
atom	0.473761	0.115252	-0.0940573
atom	-0.119427	-0.444801	-0.209036
atom	-0.215606	-0.407367	-0.379806
atom	-0.382385	-0.363996	0.148402
atom	-0.195532	0.417945	0.456844
atom	-0.282579	0.243125	0.155329
atom	0.0795228	0.223261	-0.284198
atom	0.21264	0.248102	0.380307
atom	-0.359845	0.144665	-0.473362
atom	-0.213156	0.102287	-0.108467
atom	-0.203032	0.210102	0.391627
atom	-0.405453	0.384933	0.102244
atom	0.292174	0.0475329	0.489742
atom	0.428688	-0.0229728	0.291433
atom	0.229623	-0.139962	-0.391061
atom	0.348455	-0.179072	0.334743
atom	-0.276112	0.424189	-0.042822
atom	0.392197	0.267826	-0.162612
atom	0.128731	0.0794039	0.358403
atom	-0.513458	-0.297356	-0.208926
atom	-0.169564	0.265018	0.438982
atom	0.438898	0.272152	-0.359503
atom	-0.194966	-0.392581	0.403459
atom	0.308552	-0.105219	0.0330792
atom	-0.201793	0.419553	0.320205
atom	0.0297984	0.102099	0.320956
atom	-0.00334216	-0.218804	0.0886561
atom	0.321247	-0.0354036	-0.211158
atom	0.299995	-0.360393	-0.136308
atom	-0.470547	-0.367754	-0.303734
atom	-0.0980806	0.201293	-0.420982
atom	0.470829	0.142927	-0.145741
atom	-0.25512	-0.364391	-0.454873
atom	-0.396665	0.187151	0.467578
atom	0.277868	-0.245359	-0.129413
atom	-0.144613	0.414002	0.47984
atom	-0.341756	0.0595906	0.198234
atom	0.183364	-0.417243	-0.129506
atom	-0.218378	-0.426566	0.457806
atom	-0.0414981	-0.00721664	-0.368423
atom	-0.0896919	-0.377458	-0.351548
atom	0.0745988	-0.0508512	0.147353
atom	0.0281595	-0.212987	0.43435
atom	0.510563	0.289492	-0.295971
atom	0.28354	-0.439266	-0.13056
atom	0.172522	-0.180556	-0.179598
atom	-0.39406	0.219272	-0.148098
