Simulation data

5 atoms
4 bonds

1 atom types
1 bond types

-1 1 xlo xhi
-1 1 ylo yhi
-1 1 zlo zhi

Atoms

1	1	0.8	0.5	0.0
2	1	1.5	0.2	0.2
3	1	1.2	-0.3	-0.5
4	1	0.9	-0.9	-1.1
5	1	0.5	-1.5	-0.3

Bonds

1	1	1	2
2	1	2	3
3	1	3	4
4	1	4	5
